Variables = "x","y", "Velocity_x", "Velocity_y", "Velocity_whole value", "Pressure", "Absolute pressure", "Total pressure"
Zone i=203, j=42
 0.000000000E+00 0.000000000E+00 7.583333552E-02 0.000000000E+00 7.583333552E-02 2.186010126E-03 3.167748153E-01 8.167748451E-01
 6.666670088E-04 0.000000000E+00 7.582481951E-02 0.000000000E+00 7.582481951E-02 2.186181489E-03 3.167996407E-01 8.166874051E-01
 2.000001259E-03 0.000000000E+00 7.579127699E-02 0.000000000E+00 7.579127699E-02 2.188283252E-03 3.171041906E-01 8.165497780E-01
 3.333336208E-03 0.000000000E+00 7.571115345E-02 0.000000000E+00 7.571115345E-02 2.195170382E-03 3.181022108E-01 8.164923191E-01
 4.666670691E-03 0.000000000E+00 7.558605075E-02 0.000000000E+00 7.558605075E-02 2.206440549E-03 3.197353780E-01 8.164798021E-01
 6.000005174E-03 0.000000000E+00 7.541907579E-02 0.000000000E+00 7.541907579E-02 2.221440431E-03 3.219090104E-01 8.164612055E-01
 7.333339658E-03 0.000000000E+00 7.520772517E-02 8.221866712E-21 7.520772517E-02 2.240450587E-03 3.246637583E-01 8.164480329E-01
 8.666673675E-03 0.000000000E+00 7.494886220E-02 0.000000000E+00 7.494886220E-02 2.263790229E-03 3.280459046E-01 8.164505363E-01
 1.000001095E-02 0.000000000E+00 7.463958859E-02 0.000000000E+00 7.463958859E-02 2.291679149E-03 3.320873082E-01 8.164695501E-01
 1.133334544E-02 0.000000000E+00 7.427623868E-02 0.000000000E+00 7.427623868E-02 2.324400004E-03 3.368288875E-01 8.165065646E-01
 1.266667526E-02 0.000000000E+00 7.385412604E-02 0.000000000E+00 7.385412604E-02 2.362320665E-03 3.423239589E-01 8.165650964E-01
 1.400000602E-02 0.000000000E+00 7.336760312E-02 0.000000000E+00 7.336760312E-02 2.405873965E-03 3.486352861E-01 8.166487813E-01
 1.533333585E-02 0.000000000E+00 7.280987501E-02 0.000000000E+00 7.280987501E-02 2.455569804E-03 3.558367193E-01 8.167617321E-01
 1.666666940E-02 0.000000000E+00 7.217273116E-02 0.000000000E+00 7.217273116E-02 2.512009582E-03 3.640154004E-01 8.169088364E-01
 1.800000481E-02 0.000000000E+00 7.144625485E-02 0.000000000E+00 7.144625485E-02 2.575901337E-03 3.732739687E-01 8.170957565E-01
 1.933333464E-02 0.000000000E+00 7.061839104E-02 0.000000000E+00 7.061839104E-02 2.648080466E-03 3.837334216E-01 8.173294663E-01
 2.066667005E-02 0.000000000E+00 6.967450678E-02 0.000000000E+00 6.967450678E-02 2.729526721E-03 3.955357969E-01 8.176184297E-01
 2.200000361E-02 0.000000000E+00 6.859664619E-02 0.000000000E+00 6.859664619E-02 2.821392380E-03 4.088480771E-01 8.179726005E-01
 2.333333902E-02 0.000000000E+00 6.736266613E-02 0.000000000E+00 6.736266613E-02 2.925036708E-03 4.238671660E-01 8.184046149E-01
 2.466667630E-02 0.000000000E+00 6.594499946E-02 0.000000000E+00 6.594499946E-02 3.042052034E-03 4.408238828E-01 8.189297318E-01
 2.600000426E-02 0.000000000E+00 6.430900842E-02 0.000000000E+00 6.430900842E-02 3.174305893E-03 4.599887729E-01 8.195669651E-01
 2.733334154E-02 0.000000000E+00 6.241080165E-02 0.000000000E+00 6.241080165E-02 3.323974786E-03 4.816772938E-01 8.203414679E-01
 2.866667509E-02 0.000000000E+00 6.019374356E-02 0.000000000E+00 6.019374356E-02 3.493550234E-03 5.062505007E-01 8.212808371E-01
 3.000000864E-02 0.000000000E+00 5.758479610E-02 0.000000000E+00 5.758479610E-02 3.685862524E-03 5.341184735E-01 8.224322200E-01
 3.133334592E-02 0.000000000E+00 5.448557064E-02 -1.315498674E-19 5.448557064E-02 3.903870471E-03 5.657100081E-01 8.238247037E-01
 3.266667202E-02 0.000000000E+00 5.076936632E-02 0.000000000E+00 5.076936632E-02 4.150692374E-03 6.014769673E-01 8.255828023E-01
 3.400000930E-02 0.000000000E+00 4.624557868E-02 0.000000000E+00 4.624557868E-02 4.428173415E-03 6.416867375E-01 8.276341558E-01
 3.533334658E-02 0.000000000E+00 4.068762064E-02 0.000000000E+00 4.068762064E-02 4.738039337E-03 6.865894794E-01 8.305270672E-01
 3.666668013E-02 0.000000000E+00 3.358984366E-02 0.000000000E+00 3.358984366E-02 5.072940141E-03 7.351199389E-01 8.332191706E-01
 3.800001740E-02 0.000000000E+00 2.496604249E-02 0.000000000E+00 2.496604249E-02 5.435532425E-03 7.876632214E-01 8.418569565E-01
 3.933333978E-02 0.000000000E+00 9.651527740E-03 0.000000000E+00 9.651527740E-03 5.648396444E-03 8.185093403E-01 8.266085386E-01
 4.006155580E-02 7.821725449E-04 0.000000000E+00 0.000000000E+00 0.000000000E+00 6.331542507E-03 9.175040722E-01 9.175040722E-01
 4.030627385E-02 2.327258000E-03 0.000000000E+00 0.000000000E+00 0.000000000E+00 5.134421401E-03 7.440291643E-01 7.440291643E-01
 4.078968987E-02 3.815038595E-03 0.000000000E+00 0.000000000E+00 0.000000000E+00 3.689181525E-03 5.345994234E-01 5.345994234E-01
 4.149988294E-02 5.208880175E-03 0.000000000E+00 0.000000000E+00 0.000000000E+00 2.165231854E-03 3.137638271E-01 3.137638271E-01
 4.241937771E-02 6.474462338E-03 0.000000000E+00 0.000000000E+00 0.000000000E+00 5.796586629E-04 8.399835974E-02 8.399835974E-02
 4.352554306E-02 7.580621168E-03 0.000000000E+00 0.000000000E+00 0.000000000E+00 -9.439449059E-04 -1.367870867E-01 -1.367870867E-01
 4.479112476E-02 8.500119671E-03 0.000000000E+00 0.000000000E+00 0.000000000E+00 -2.310637152E-03 -3.348345160E-01 -3.348345160E-01
 4.618496448E-02 9.210317396E-03 0.000000000E+00 0.000000000E+00 0.000000000E+00 -3.208526876E-03 -4.649477303E-01 -4.649477303E-01
 4.767274484E-02 9.693725966E-03 0.000000000E+00 0.000000000E+00 0.000000000E+00 -3.605791833E-03 -5.225154161E-01 -5.225154161E-01
 4.921783134E-02 9.938442148E-03 0.000000000E+00 0.000000000E+00 0.000000000E+00 -3.518996760E-03 -5.099379420E-01 -5.099379420E-01
 5.078217387E-02 9.938441217E-03 0.000000000E+00 0.000000000E+00 0.000000000E+00 -3.114630701E-03 -4.513412416E-01 -4.513412416E-01
 5.232726038E-02 9.693724103E-03 0.000000000E+00 0.000000000E+00 0.000000000E+00 -2.655197168E-03 -3.847647011E-01 -3.847647011E-01
 5.381503701E-02 9.210314602E-03 0.000000000E+00 0.000000000E+00 0.000000000E+00 -2.300593304E-03 -3.333790600E-01 -3.333790600E-01
 5.520887300E-02 8.500117809E-03 0.000000000E+00 0.000000000E+00 0.000000000E+00 -2.084687119E-03 -3.020920753E-01 -3.020920753E-01
 5.647445843E-02 7.580620237E-03 0.000000000E+00 0.000000000E+00 0.000000000E+00 -1.962370705E-03 -2.843672037E-01 -2.843672037E-01
 5.758062378E-02 6.474460475E-03 0.000000000E+00 0.000000000E+00 0.000000000E+00 -1.903228345E-03 -2.757968903E-01 -2.757968903E-01
 5.850011855E-02 5.208877847E-03 0.000000000E+00 0.000000000E+00 0.000000000E+00 -1.871245680E-03 -2.711622715E-01 -2.711622715E-01
 5.921031162E-02 3.815035801E-03 0.000000000E+00 0.000000000E+00 0.000000000E+00 -1.841662568E-03 -2.668753862E-01 -2.668753862E-01
 5.969372764E-02 2.327254973E-03 0.000000000E+00 0.000000000E+00 0.000000000E+00 -1.791476738E-03 -2.596029639E-01 -2.596029639E-01
 5.993844569E-02 7.821709733E-04 0.000000000E+00 0.000000000E+00 0.000000000E+00 -1.706063631E-03 -2.472257465E-01 -2.472257465E-01
 6.058314443E-02 0.000000000E+00 -1.882894197E-03 0.000000000E+00 1.882894197E-03 -1.757881488E-03 -2.547346652E-01 -2.544264197E-01
 6.175001711E-02 0.000000000E+00 -4.173344001E-03 0.000000000E+00 4.173344001E-03 -1.772159245E-03 -2.568036616E-01 -2.552893460E-01
 6.291805208E-02 0.000000000E+00 -6.113357842E-03 0.000000000E+00 6.113357842E-03 -1.789011760E-03 -2.592457533E-01 -2.559963167E-01
 6.408726424E-02 0.000000000E+00 -7.731684484E-03 0.000000000E+00 7.731684484E-03 -1.805961248E-03 -2.617019117E-01 -2.565043569E-01
 6.525763869E-02 0.000000000E+00 -9.095359594E-03 0.000000000E+00 9.095359594E-03 -1.821333426E-03 -2.639294863E-01 -2.567368150E-01
 6.642919779E-02 0.000000000E+00 -1.025632862E-02 0.000000000E+00 1.025632862E-02 -1.835281262E-03 -2.659506798E-01 -2.568046153E-01
 6.760191917E-02 0.000000000E+00 -1.126302127E-02 0.000000000E+00 1.126302127E-02 -1.848030603E-03 -2.677981853E-01 -2.567685843E-01
 6.877581775E-02 0.000000000E+00 -1.215259731E-02 0.000000000E+00 1.215259731E-02 -1.859711949E-03 -2.694909275E-01 -2.566502392E-01
 6.995089352E-02 0.000000000E+00 -1.295079011E-02 0.000000000E+00 1.295079011E-02 -1.870435080E-03 -2.710448205E-01 -2.564619780E-01
 7.112713158E-02 0.000000000E+00 -1.367556117E-02 0.000000000E+00 1.367556117E-02 -1.880295342E-03 -2.724736631E-01 -2.562129200E-01
 7.230455428E-02 0.000000000E+00 -1.433994900E-02 0.000000000E+00 1.433994900E-02 -1.889372012E-03 -2.737889588E-01 -2.559098899E-01
 7.348315418E-02 0.000000000E+00 -1.495372411E-02 0.000000000E+00 1.495372411E-02 -1.897732494E-03 -2.750004828E-01 -2.555581331E-01
 7.466293126E-02 0.000000000E+00 -1.552444696E-02 0.000000000E+00 1.552444696E-02 -1.905435114E-03 -2.761166692E-01 -2.551619411E-01
 7.584387809E-02 0.000000000E+00 -1.605813392E-02 0.000000000E+00 1.605813392E-02 -1.912532025E-03 -2.771450877E-01 -2.547248602E-01
 7.702601701E-02 0.000000000E+00 -1.655966602E-02 0.000000000E+00 1.655966602E-02 -1.919068978E-03 -2.780923545E-01 -2.542497814E-01
 7.820932567E-02 0.000000000E+00 -1.703303307E-02 0.000000000E+00 1.703303307E-02 -1.925087301E-03 -2.789644599E-01 -2.537393272E-01
 7.939383388E-02 0.000000000E+00 -1.748155430E-02 1.644373342E-20 1.748155430E-02 -1.930622966E-03 -2.797666490E-01 -2.531955242E-01
 8.057952672E-02 0.000000000E+00 -1.790802553E-02 0.000000000E+00 1.790802553E-02 -1.935708569E-03 -2.805036008E-01 -2.526202500E-01
 8.176639676E-02 0.000000000E+00 -1.831478253E-02 0.000000000E+00 1.831478253E-02 -1.940372400E-03 -2.811794281E-01 -2.520150244E-01
 8.295444399E-02 0.000000000E+00 -1.870382577E-02 0.000000000E+00 1.870382577E-02 -1.944639836E-03 -2.817978263E-01 -2.513812184E-01
 8.414369822E-02 0.000000000E+00 -1.907684281E-02 0.000000000E+00 1.907684281E-02 -1.948531717E-03 -2.823618054E-01 -2.507199049E-01
 8.533412963E-02 0.000000000E+00 -1.943528280E-02 0.000000000E+00 1.943528280E-02 -1.952068065E-03 -2.828742564E-01 -2.500321269E-01
 8.652575314E-02 0.000000000E+00 -1.978038624E-02 0.000000000E+00 1.978038624E-02 -1.955264015E-03 -2.833373845E-01 -2.493185550E-01
 8.771856129E-02 0.000000000E+00 -2.011321671E-02 0.000000000E+00 2.011321671E-02 -1.958134118E-03 -2.837532759E-01 -2.485800087E-01
 8.891258389E-02 0.000000000E+00 -2.043468133E-02 0.000000000E+00 2.043468133E-02 -1.960689900E-03 -2.841236293E-01 -2.478170395E-01
 9.010778368E-02 0.000000000E+00 -2.074557543E-02 0.000000000E+00 2.074557543E-02 -1.962940674E-03 -2.844497859E-01 -2.470300496E-01
 9.130419046E-02 0.000000000E+00 -2.104656585E-02 0.000000000E+00 2.104656585E-02 -1.964894822E-03 -2.847329676E-01 -2.462195307E-01
 9.250178933E-02 0.000000000E+00 -2.133825235E-02 0.000000000E+00 2.133825235E-02 -1.966558630E-03 -2.849740684E-01 -2.453857213E-01
 9.370060265E-02 0.000000000E+00 -2.162112668E-02 0.000000000E+00 2.162112668E-02 -1.967937220E-03 -2.851738632E-01 -2.445289344E-01
 9.490058571E-02 0.000000000E+00 -2.189562656E-02 0.000000000E+00 2.189562656E-02 -1.969035016E-03 -2.853329182E-01 -2.436493933E-01
 9.610179067E-02 0.000000000E+00 -2.216213383E-02 0.000000000E+00 2.216213383E-02 -1.969854115E-03 -2.854516208E-01 -2.427472025E-01
 9.730419517E-02 0.000000000E+00 -2.242098004E-02 0.000000000E+00 2.242098004E-02 -1.970396843E-03 -2.855302691E-01 -2.418224812E-01
 9.850779176E-02 0.000000000E+00 -2.267244272E-02 0.000000000E+00 2.267244272E-02 -1.970664365E-03 -2.855690420E-01 -2.408753484E-01
 9.971260279E-02 0.000000000E+00 -2.291675843E-02 0.000000000E+00 2.291675843E-02 -1.970656449E-03 -2.855678797E-01 -2.399057597E-01
 1.009185985E-01 0.000000000E+00 -2.315414511E-02 0.000000000E+00 2.315414511E-02 -1.970373560E-03 -2.855269015E-01 -2.389138788E-01
 1.021257937E-01 0.000000000E+00 -2.338478528E-02 0.000000000E+00 2.338478528E-02 -1.969814533E-03 -2.854458988E-01 -2.378996313E-01
 1.033342630E-01 0.000000000E+00 -2.360881492E-02 0.000000000E+00 2.360881492E-02 -1.968977973E-03 -2.853246629E-01 -2.368630171E-01
 1.045438945E-01 0.000000000E+00 -2.382638678E-02 0.000000000E+00 2.382638678E-02 -1.967861550E-03 -2.851628959E-01 -2.358039320E-01
 1.057547554E-01 0.000000000E+00 -2.403762005E-02 0.000000000E+00 2.403762005E-02 -1.966464333E-03 -2.849604189E-01 -2.347223759E-01
 1.069668010E-01 0.000000000E+00 -2.424259670E-02 0.000000000E+00 2.424259670E-02 -1.964783063E-03 -2.847167850E-01 -2.336183041E-01
 1.081800461E-01 0.000000000E+00 -2.444136888E-02 0.000000000E+00 2.444136888E-02 -1.962814480E-03 -2.844315171E-01 -2.324916571E-01
 1.093945503E-01 0.000000000E+00 -2.463400364E-02 0.000000000E+00 2.463400364E-02 -1.960554859E-03 -2.841040790E-01 -2.313422710E-01
 1.106102467E-01 0.000000000E+00 -2.482054010E-02 0.000000000E+00 2.482054010E-02 -1.958000707E-03 -2.837339342E-01 -2.301700413E-01
 1.118271425E-01 0.000000000E+00 -2.500097267E-02 0.000000000E+00 2.500097267E-02 -1.955146901E-03 -2.833203971E-01 -2.289749086E-01
 1.130453050E-01 0.000000000E+00 -2.517528273E-02 0.000000000E+00 2.517528273E-02 -1.951987855E-03 -2.828626335E-01 -2.277566940E-01
 1.142646521E-01 0.000000000E+00 -2.534342743E-02 0.000000000E+00 2.534342743E-02 -1.948517747E-03 -2.823597789E-01 -2.265152782E-01
 1.154851988E-01 0.000000000E+00 -2.550534718E-02 0.000000000E+00 2.550534718E-02 -1.944730175E-03 -2.818109095E-01 -2.252505422E-01
 1.167069972E-01 0.000000000E+00 -2.566097304E-02 0.000000000E+00 2.566097304E-02 -1.940617687E-03 -2.812149823E-01 -2.239622921E-01
 1.179300025E-01 0.000000000E+00 -2.581018955E-02 0.000000000E+00 2.581018955E-02 -1.936172368E-03 -2.805708051E-01 -2.226503342E-01
 1.191542521E-01 0.000000000E+00 -2.595288865E-02 0.000000000E+00 2.595288865E-02 -1.931386185E-03 -2.798772454E-01 -2.213145494E-01
 1.203796938E-01 0.000000000E+00 -2.608892694E-02 0.000000000E+00 2.608892694E-02 -1.926250872E-03 -2.791330814E-01 -2.199548185E-01
 1.216063499E-01 0.000000000E+00 -2.621816471E-02 0.000000000E+00 2.621816471E-02 -1.920757000E-03 -2.783369720E-01 -2.185709625E-01
 1.228343025E-01 0.000000000E+00 -2.634042874E-02 0.000000000E+00 2.634042874E-02 -1.914894907E-03 -2.774874866E-01 -2.171627581E-01
 1.240634546E-01 0.000000000E+00 -2.645554394E-02 0.000000000E+00 2.645554394E-02 -1.908654580E-03 -2.765831947E-01 -2.157300413E-01
 1.252937913E-01 0.000000000E+00 -2.656334452E-02 0.000000000E+00 2.656334452E-02 -1.902027521E-03 -2.756228745E-01 -2.142727822E-01
 1.265254021E-01 0.000000000E+00 -2.666365728E-02 0.000000000E+00 2.666365728E-02 -1.895004651E-03 -2.746051848E-01 -2.127908617E-01
 1.277582645E-01 0.000000000E+00 -2.675629221E-02 0.000000000E+00 2.675629221E-02 -1.887575374E-03 -2.735286057E-01 -2.112840265E-01
 1.289923042E-01 0.000000000E+00 -2.684106864E-02 0.000000000E+00 2.684106864E-02 -1.879731775E-03 -2.723920047E-01 -2.097523659E-01
 1.302276105E-01 0.000000000E+00 -2.691776305E-02 0.000000000E+00 2.691776305E-02 -1.871462213E-03 -2.711936533E-01 -2.081955224E-01
 1.314641535E-01 0.000000000E+00 -2.698617429E-02 0.000000000E+00 2.698617429E-02 -1.862759702E-03 -2.699325681E-01 -2.066138238E-01
 1.327019036E-01 0.000000000E+00 -2.704614773E-02 0.000000000E+00 2.704614773E-02 -1.853617840E-03 -2.686078250E-01 -2.050073296E-01
 1.339409053E-01 0.000000000E+00 -2.709744684E-02 0.000000000E+00 2.709744684E-02 -1.844025217E-03 -2.672177553E-01 -2.033757567E-01
 1.351811439E-01 0.000000000E+00 -2.713972144E-02 0.000000000E+00 2.713972144E-02 -1.833967981E-03 -2.657603621E-01 -2.017190158E-01
 1.364226490E-01 0.000000000E+00 -2.717280947E-02 0.000000000E+00 2.717280947E-02 -1.823456376E-03 -2.642371356E-01 -2.000395358E-01
 1.376653463E-01 0.000000000E+00 -2.719700523E-02 0.000000000E+00 2.719700523E-02 -1.812516479E-03 -2.626518309E-01 -1.983398497E-01
 1.389092952E-01 0.000000000E+00 -2.721221372E-02 0.000000000E+00 2.721221372E-02 -1.801106264E-03 -2.609983683E-01 -1.966144443E-01
 1.401545554E-01 0.000000000E+00 -2.721818164E-02 0.000000000E+00 2.721818164E-02 -1.789199538E-03 -2.592729628E-01 -1.948607862E-01
 1.414009929E-01 0.000000000E+00 -2.721471339E-02 0.000000000E+00 2.721471339E-02 -1.776710502E-03 -2.574631870E-01 -1.930674314E-01
 1.426486969E-01 0.000000000E+00 -2.719912864E-02 0.000000000E+00 2.719912864E-02 -1.763699809E-03 -2.555778027E-01 -1.912557781E-01
 1.438976526E-01 0.000000000E+00 -2.717279829E-02 0.000000000E+00 2.717279829E-02 -1.750199590E-03 -2.536214888E-01 -1.894239336E-01
 1.451478451E-01 0.000000000E+00 -2.713566273E-02 0.000000000E+00 2.713566273E-02 -1.736173755E-03 -2.515890002E-01 -1.875668019E-01
 1.463993490E-01 0.000000000E+00 -2.708754689E-02 0.000000000E+00 2.708754689E-02 -1.721594948E-03 -2.494763881E-01 -1.856810302E-01
 1.476520598E-01 0.000000000E+00 -2.702828869E-02 0.000000000E+00 2.702828869E-02 -1.706477720E-03 -2.472857386E-01 -1.837691963E-01
 1.489060074E-01 0.000000000E+00 -2.695723809E-02 0.000000000E+00 2.695723809E-02 -1.690820209E-03 -2.450168133E-01 -1.818337739E-01
 1.501612067E-01 0.000000000E+00 -2.687427029E-02 0.000000000E+00 2.687427029E-02 -1.674613217E-03 -2.426682562E-01 -1.798735410E-01
 1.514176577E-01 0.000000000E+00 -2.677906491E-02 0.000000000E+00 2.677906491E-02 -1.657854067E-03 -2.402396947E-01 -1.778891087E-01
 1.526753455E-01 0.000000000E+00 -2.667142078E-02 0.000000000E+00 2.667142078E-02 -1.640539151E-03 -2.377305776E-01 -1.758802533E-01
 1.539343446E-01 0.000000000E+00 -2.655109577E-02 0.000000000E+00 2.655109577E-02 -1.622666256E-03 -2.351406217E-01 -1.738470942E-01
 1.551946104E-01 0.000000000E+00 -2.641787380E-02 0.000000000E+00 2.641787380E-02 -1.604234916E-03 -2.324697375E-01 -1.717897505E-01
 1.564561129E-01 0.000000000E+00 -2.627156489E-02 0.000000000E+00 2.627156489E-02 -1.585246297E-03 -2.297180891E-01 -1.697083712E-01
 1.577189118E-01 0.000000000E+00 -2.611196414E-02 0.000000000E+00 2.611196414E-02 -1.565701212E-03 -2.268858105E-01 -1.676030010E-01
 1.589829028E-01 0.000000000E+00 -2.593889832E-02 0.000000000E+00 2.593889832E-02 -1.545604435E-03 -2.239735872E-01 -1.654739976E-01
 1.602481455E-01 0.000000000E+00 -2.575219981E-02 0.000000000E+00 2.575219981E-02 -1.524959924E-03 -2.209820002E-01 -1.633215100E-01
 1.615146995E-01 0.000000000E+00 -2.555173077E-02 0.000000000E+00 2.555173077E-02 -1.503772917E-03 -2.179117799E-01 -1.611455083E-01
 1.627824903E-01 0.000000000E+00 -2.533732913E-02 0.000000000E+00 2.533732913E-02 -1.482051797E-03 -2.147641778E-01 -1.589465439E-01
 1.640515924E-01 0.000000000E+00 -2.510892041E-02 0.000000000E+00 2.510892041E-02 -1.459805295E-03 -2.115404308E-01 -1.567246318E-01
 1.653220057E-01 0.000000000E+00 -2.486636490E-02 0.000000000E+00 2.486636490E-02 -1.437044237E-03 -2.082421333E-01 -1.544802785E-01
 1.665935963E-01 0.000000000E+00 -2.460963652E-02 0.000000000E+00 2.460963652E-02 -1.413782360E-03 -2.048712522E-01 -1.522137672E-01
 1.678664982E-01 0.000000000E+00 -2.433866821E-02 0.000000000E+00 2.433866821E-02 -1.390032587E-03 -2.014296651E-01 -1.499253809E-01
 1.691406965E-01 0.000000000E+00 -2.405341342E-02 0.000000000E+00 2.405341342E-02 -1.365809469E-03 -1.979195029E-01 -1.476154327E-01
 1.704161018E-01 0.000000000E+00 -2.375391312E-02 0.000000000E+00 2.375391312E-02 -1.341132564E-03 -1.943435669E-01 -1.452844143E-01
 1.716928035E-01 0.000000000E+00 -2.344017848E-02 0.000000000E+00 2.344017848E-02 -1.316019800E-03 -1.907044798E-01 -1.429326832E-01
 1.729708165E-01 0.000000000E+00 -2.311219461E-02 0.000000000E+00 2.311219461E-02 -1.290491084E-03 -1.870051026E-01 -1.405608356E-01
 1.742501110E-01 0.000000000E+00 -2.277005650E-02 0.000000000E+00 2.277005650E-02 -1.264567603E-03 -1.832485348E-01 -1.381691545E-01
 1.755307019E-01 0.000000000E+00 -2.241384052E-02 0.000000000E+00 2.241384052E-02 -1.238273107E-03 -1.794382036E-01 -1.357582361E-01
 1.768125147E-01 0.000000000E+00 -2.204366028E-02 0.000000000E+00 2.204366028E-02 -1.211633673E-03 -1.755778790E-01 -1.333288103E-01
 1.780956089E-01 0.000000000E+00 -2.165966667E-02 0.000000000E+00 2.165966667E-02 -1.184672932E-03 -1.716710031E-01 -1.308810413E-01
 1.793799996E-01 0.000000000E+00 -2.126200870E-02 0.000000000E+00 2.126200870E-02 -1.157419407E-03 -1.677216887E-01 -1.284157336E-01
 1.806656718E-01 0.000000000E+00 -2.085089684E-02 0.000000000E+00 2.085089684E-02 -1.129901968E-03 -1.637341380E-01 -1.259334981E-01
 1.819526553E-01 0.000000000E+00 -2.042654529E-02 0.000000000E+00 2.042654529E-02 -1.102149603E-03 -1.597125381E-01 -1.234348491E-01
 1.832408905E-01 0.000000000E+00 -1.998918317E-02 0.000000000E+00 1.998918317E-02 -1.074193045E-03 -1.556613594E-01 -1.209205613E-01
 1.845304519E-01 0.000000000E+00 -1.953909546E-02 0.000000000E+00 1.953909546E-02 -1.046063961E-03 -1.515851617E-01 -1.183912382E-01
 1.858213097E-01 0.000000000E+00 -1.907655224E-02 0.000000000E+00 1.907655224E-02 -1.017793198E-03 -1.474884450E-01 -1.158474982E-01
 1.871134043E-01 0.000000000E+00 -1.860190928E-02 0.000000000E+00 1.860190928E-02 -9.894144023E-04 -1.433760822E-01 -1.132900566E-01
 1.884067953E-01 0.000000000E+00 -1.811545342E-02 0.000000000E+00 1.811545342E-02 -9.609597037E-04 -1.392527074E-01 -1.107196584E-01
 1.897014976E-01 0.000000000E+00 -1.761755720E-02 0.000000000E+00 1.761755720E-02 -9.324623388E-04 -1.351231486E-01 -1.081369892E-01
 1.909975410E-01 0.000000000E+00 -1.710857823E-02 0.000000000E+00 1.710857823E-02 -9.039545548E-04 -1.309920847E-01 -1.055426821E-01
 1.922948509E-01 0.000000000E+00 -1.658887975E-02 0.000000000E+00 1.658887975E-02 -8.754706942E-04 -1.268644929E-01 -1.029377431E-01
 1.935934126E-01 0.000000000E+00 -1.605893299E-02 0.000000000E+00 1.605893299E-02 -8.470439934E-04 -1.227451712E-01 -1.003227234E-01
 1.948933005E-01 0.000000000E+00 -1.551910397E-02 0.000000000E+00 1.551910397E-02 -8.187064668E-04 -1.186387837E-01 -9.769847244E-02
 1.961944997E-01 0.000000000E+00 -1.496981364E-02 0.000000000E+00 1.496981364E-02 -7.904893137E-04 -1.145498306E-01 -9.506563842E-02
 1.974969804E-01 0.000000000E+00 -1.441156026E-02 0.000000000E+00 1.441156026E-02 -7.624251302E-04 -1.104830503E-01 -9.242496639E-02
 1.988007873E-01 0.000000000E+00 -1.384476293E-02 0.000000000E+00 1.384476293E-02 -7.345456397E-04 -1.064430326E-01 -8.977743238E-02
 2.001058906E-01 0.000000000E+00 -1.326993853E-02 -3.288746685E-20 1.326993853E-02 -7.068794221E-04 -1.024339199E-01 -8.712348342E-02
 2.014123499E-01 0.000000000E+00 -1.268752012E-02 0.000000000E+00 1.268752012E-02 -6.794568617E-04 -9.846011549E-02 -8.446414024E-02
 2.027201056E-01 0.000000000E+00 -1.209801249E-02 0.000000000E+00 1.209801249E-02 -6.523063639E-04 -9.452573955E-02 -8.180015534E-02
 2.040290833E-01 0.000000000E+00 -1.150190830E-02 0.000000000E+00 1.150190830E-02 -6.254549953E-04 -9.063470364E-02 -7.913227379E-02
 2.053393871E-01 0.000000000E+00 -1.089969743E-02 0.000000000E+00 1.089969743E-02 -5.989271449E-04 -8.679055423E-02 -7.646106929E-02
 2.066510320E-01 0.000000000E+00 -1.029188093E-02 0.000000000E+00 1.029188093E-02 -5.727482494E-04 -8.299697191E-02 -7.378740609E-02
 2.079640031E-01 0.000000000E+00 -9.678903967E-03 0.000000000E+00 9.678903967E-03 -5.469404277E-04 -7.925716043E-02 -7.111195475E-02
 2.092782557E-01 0.000000000E+00 -9.061268531E-03 0.000000000E+00 9.061268531E-03 -5.215255078E-04 -7.557427883E-02 -6.843543798E-02
 2.105938494E-01 0.000000000E+00 -8.439404890E-03 0.000000000E+00 8.439404890E-03 -4.965224070E-04 -7.195107639E-02 -6.575847417E-02
 2.119107395E-01 0.000000000E+00 -7.813785225E-03 0.000000000E+00 7.813785225E-03 -4.719500139E-04 -6.839029491E-02 -6.308178604E-02
 2.132289559E-01 0.000000000E+00 -7.184857037E-03 0.000000000E+00 7.184857037E-03 -4.478259070E-04 -6.489446759E-02 -6.040612608E-02
 2.145484984E-01 0.000000000E+00 -6.553071551E-03 0.000000000E+00 6.553071551E-03 -4.241635033E-04 -6.146554649E-02 -5.773184448E-02
 2.158693522E-01 0.000000000E+00 -5.918853916E-03 0.000000000E+00 5.918853916E-03 -4.009791883E-04 -5.810590833E-02 -5.505994335E-02
 2.171915472E-01 0.000000000E+00 -5.282590166E-03 0.000000000E+00 5.282590166E-03 -3.782829735E-04 -5.481699854E-02 -5.239070207E-02
 2.185150534E-01 0.000000000E+00 -4.644697066E-03 0.000000000E+00 4.644697066E-03 -3.560866462E-04 -5.160052702E-02 -4.972482100E-02
 2.198398560E-01 0.000000000E+00 -4.005549010E-03 3.288746685E-20 4.005549010E-03 -3.343999269E-04 -4.845790565E-02 -4.706290737E-02
 2.211659998E-01 0.000000000E+00 -3.365498967E-03 -3.288746685E-20 3.365498967E-03 -3.132299171E-04 -4.539015889E-02 -4.440535605E-02
 2.224934399E-01 0.000000000E+00 -2.724873601E-03 0.000000000E+00 2.724873601E-03 -2.925838635E-04 -4.239833727E-02 -4.175276682E-02
 2.238222510E-01 0.000000000E+00 -2.083983971E-03 0.000000000E+00 2.083983971E-03 -2.724661608E-04 -3.948308155E-02 -3.910547495E-02
 2.251524031E-01 0.000000000E+00 -1.443133107E-03 0.000000000E+00 1.443133107E-03 -2.528814366E-04 -3.664505854E-02 -3.646398336E-02
 2.264838964E-01 0.000000000E+00 -8.026045980E-04 0.000000000E+00 8.026045980E-04 -2.338337945E-04 -3.388486430E-02 -3.382885456E-02
 2.278167605E-01 0.000000000E+00 -1.626623271E-04 0.000000000E+00 1.626623271E-04 -2.153249225E-04 -3.120274283E-02 -3.120044246E-02
 2.291509062E-01 0.000000000E+00 4.764697514E-04 0.000000000E+00 4.764697514E-04 -1.973563485E-04 -2.859891579E-02 -2.857917733E-02
 2.304863483E-01 0.000000000E+00 1.114609302E-03 0.000000000E+00 1.114609302E-03 -1.799272868E-04 -2.607326955E-02 -2.596525103E-02
 2.318231612E-01 0.000000000E+00 1.751583186E-03 0.000000000E+00 1.751583186E-03 -1.630363258E-04 -2.362559922E-02 -2.335884422E-02
 2.331613600E-01 0.000000000E+00 2.387254266E-03 0.000000000E+00 2.387254266E-03 -1.466826652E-04 -2.125578932E-02 -2.076028474E-02
 2.345008403E-01 0.000000000E+00 3.021497978E-03 3.288746685E-20 3.021497978E-03 -1.308658102E-04 -1.896376908E-02 -1.816999912E-02
 2.358416319E-01 0.000000000E+00 3.654216416E-03 0.000000000E+00 3.654216416E-03 -1.155831269E-04 -1.674915478E-02 -1.558813918E-02
 2.371837944E-01 0.000000000E+00 4.285387695E-03 0.000000000E+00 4.285387695E-03 -1.008323670E-04 -1.461162139E-02 -1.301489677E-02
 2.385272980E-01 0.000000000E+00 4.915046506E-03 0.000000000E+00 4.915046506E-03 -8.660997264E-05 -1.255065389E-02 -1.045023929E-02
 2.398721576E-01 0.000000000E+00 5.543181673E-03 0.000000000E+00 5.543181673E-03 -7.291592192E-05 -1.056624856E-02 -7.894669659E-03
 2.412183434E-01 0.000000000E+00 6.170067471E-03 0.000000000E+00 6.170067471E-03 -5.974373562E-05 -8.657466620E-03 -5.347454920E-03
 2.425659001E-01 0.000000000E+00 6.795739289E-03 0.000000000E+00 6.795739289E-03 -4.710467692E-05 -6.825940218E-03 -2.810592763E-03
 2.439147532E-01 0.000000000E+00 7.421066985E-03 0.000000000E+00 7.421066985E-03 -3.497731814E-05 -5.068564322E-03 -2.802525414E-04
 2.452650070E-01 0.000000000E+00 8.047235198E-03 0.000000000E+00 8.047235198E-03 -2.339573257E-05 -3.390276339E-03 2.240172355E-03
 2.466165870E-01 0.000000000E+00 8.676203899E-03 3.288746685E-20 8.676203899E-03 -1.242017333E-05 -1.799807767E-03 4.745185841E-03
 2.479695529E-01 0.000000000E+00 9.277414531E-03 0.000000000E+00 9.277414531E-03 -2.566702733E-06 -3.719409870E-04 7.111539599E-03
 2.493231893E-01 0.000000000E+00 1.024297066E-02 -3.288746685E-20 1.024297066E-02 1.487410373E-05 2.155406866E-03 1.127764862E-02
 2.500000000E-01 0.000000000E+00 1.072574407E-02 -4.933102579E-20 1.072574407E-02 2.359441532E-05 3.419067478E-03 1.336068101E-02
 0.000000000E+00 4.536374763E-04 7.583333552E-02 0.000000000E+00 7.583333552E-02 2.185130725E-03 3.166473806E-01 8.166474104E-01
 6.616330356E-04 4.536374763E-04 7.582482696E-02 7.195797025E-06 7.582482696E-02 2.186189871E-03 3.168008626E-01 8.166887164E-01
 1.984900562E-03 4.536374763E-04 7.579127699E-02 2.091282477E-05 7.579128444E-02 2.188291866E-03 3.171054423E-01 8.165510893E-01
 3.308171639E-03 4.536374763E-04 7.571115345E-02 3.415407264E-05 7.571116090E-02 2.195178997E-03 3.181034625E-01 8.164936900E-01
 4.631447606E-03 4.536374763E-04 7.558605075E-02 4.720081051E-05 7.558605820E-02 2.206449397E-03 3.197366595E-01 8.164812326E-01
 5.954728927E-03 4.536374763E-04 7.541907579E-02 6.020221917E-05 7.541909814E-02 2.221449045E-03 3.219102621E-01 8.164628148E-01
 7.278016768E-03 4.536374763E-04 7.520772517E-02 7.321262092E-05 7.520775497E-02 2.240459435E-03 3.246650398E-01 8.164497018E-01
 8.601313457E-03 4.536374763E-04 7.494886220E-02 8.636741404E-05 7.494890690E-02 2.263798844E-03 3.280471861E-01 8.164525032E-01
 9.924621321E-03 4.536374763E-04 7.463958859E-02 9.984370263E-05 7.463965565E-02 2.291687764E-03 3.320885599E-01 8.164716363E-01
 1.124794222E-02 4.536374763E-04 7.427623123E-02 1.138250518E-04 7.427632064E-02 2.324408386E-03 3.368301094E-01 8.165088296E-01
 1.257127523E-02 4.536374763E-04 7.385412604E-02 1.285076723E-04 7.385423779E-02 2.362328814E-03 3.423251510E-01 8.165677190E-01
 1.389462966E-02 4.536374763E-04 7.336760312E-02 1.441165805E-04 7.336774468E-02 2.405882115E-03 3.486364782E-01 8.166518211E-01
 1.521801203E-02 4.536374763E-04 7.280987501E-02 1.609143656E-04 7.281005383E-02 2.455578186E-03 3.558379114E-01 8.167651892E-01
 1.654142700E-02 4.536374763E-04 7.217273116E-02 1.792204566E-04 7.217295468E-02 2.512017731E-03 3.640165627E-01 8.169127703E-01
 1.786488481E-02 4.536374763E-04 7.144625485E-02 1.994253689E-04 7.144653052E-02 2.575909719E-03 3.732751608E-01 8.171004057E-01
 1.918839291E-02 4.536374763E-04 7.061839104E-02 2.220121387E-04 7.061873376E-02 2.648088615E-03 3.837346137E-01 8.173349500E-01
 2.051196620E-02 4.536374763E-04 6.967450678E-02 2.476073860E-04 6.967494637E-02 2.729534870E-03 3.955369890E-01 8.176249862E-01
 2.183561772E-02 4.536374763E-04 6.859664619E-02 2.770151477E-04 6.859720498E-02 2.821400762E-03 4.088492692E-01 8.179804683E-01
 2.315937355E-02 4.536374763E-04 6.736265868E-02 3.113088896E-04 6.736338139E-02 2.925044624E-03 4.238683283E-01 8.184141517E-01
 2.448325232E-02 4.536374763E-04 6.594499946E-02 3.519213642E-04 6.594593823E-02 3.042060183E-03 4.408250451E-01 8.189416528E-01
 2.580728568E-02 4.536374763E-04 6.430900842E-02 4.008292162E-04 6.431025267E-02 3.174314043E-03 4.599899650E-01 8.195821047E-01